Example                                                                 
SP        RAPFD                                      6-311+G(2d,p)       
Number of atoms                            I                3
Info1-9                                    I   N=           9
           8           8           0           0           0         111
           1          18        -402
Full Title                                 C   N=           1
Example     
Route                                      C   N=           4
#p apfd/6-311+g(2d,p) geom=modela test          
Charge                                     I                0
Multiplicity                               I                1
Number of electrons                        I               18
Number of alpha electrons                  I                9
Number of beta electrons                   I                9
Number of basis functions                  I               60
Number of independent functions            I               60
Number of point charges in /Mol/           I                0
Number of translation vectors              I                0
Atomic numbers                             I   N=           3
           8           9           1
Nuclear charges                            R   N=           3
  8.00000000E+00  9.00000000E+00  1.00000000E+00
Current cartesian coordinates              R   N=           9
  9.50213801E-02  1.30811042E+00 -4.93038066E-32  9.50213801E-02 -1.37530068E+00
  4.93038066E-32 -1.61536346E+00  1.91282278E+00 -4.93038066E-32
Number of symbols in /Mol/                 I                0
Force Field                                I                0
Atom Types                                 C   N=           3
                                    
Int Atom Types                             I   N=           3
           0           0           0
MM charges                                 R   N=           3
  0.00000000E+00  0.00000000E+00  0.00000000E+00
Integer atomic weights                     I   N=           3
          16          19           1
Real atomic weights                        R   N=           3
  1.59949146E+01  1.89984032E+01  1.00782504E+00
Atom fragment info                         I   N=           3
           0           0           0
Atom residue num                           I   N=           3
           0           0           0
Nuclear spins                              I   N=           3
           0           1           1
Nuclear ZEff                               R   N=           3
 -5.60000000E+00 -6.75000000E+00 -1.00000000E+00
Nuclear ZNuc                               R   N=           3
  8.00000000E+00  9.00000000E+00  1.00000000E+00
Nuclear QMom                               R   N=           3
  0.00000000E+00  0.00000000E+00  0.00000000E+00
Nuclear GFac                               R   N=           3
  0.00000000E+00  2.62886700E+00  2.79284600E+00
MicOpt                                     I   N=           3
          -1          -1          -1
Number of residues                         I                0
Number of secondary structures             I                0
SymInf integers                            I   N=          26
           1           2           1           1           1           1
           1          -1           0           0           0           0
           0           0           0           0           0           0
           0           0           0           0           0           0
           0           0
RotTr to input orientation                 R   N=          12
 -1.00000000E+00  1.24776449E-17  2.19609195E-16 -2.19609195E-16 -1.21827362E-16
 -1.00000000E+00 -1.24776449E-17 -1.00000000E+00  1.21827362E-16  9.50213801E-02
  0.00000000E+00  1.30811042E+00
Number of contracted shells                I               18
Number of primitive shells                 I               34
Pure/Cartesian d shells                    I                0
Pure/Cartesian f shells                    I                0
Highest angular momentum                   I                2
Largest degree of contraction              I                6
Shell types                                I   N=          18
           0          -1          -1          -1          -1          -2
          -2           0          -1          -1          -1          -1
          -2          -2           0           0           0           1
Number of primitives per shell             I   N=          18
           6           3           1           1           1           1
           1           6           3           1           1           1
           1           1           3           1           1           1
Shell to atom map                          I   N=          18
           1           1           1           1           1           1
           1           2           2           2           2           2
           2           2           3           3           3           3
Primitive exponents                        R   N=          34
  8.58850000E+03  1.29723000E+03  2.99296000E+02  8.73771000E+01  2.56789000E+01
  3.74004000E+00  4.21175000E+01  9.62837000E+00  2.85332000E+00  9.05661000E-01
  2.55611000E-01  8.45000000E-02  2.58400000E+00  6.46000000E-01  1.14271000E+04
  1.72235000E+03  3.95746000E+02  1.15139000E+02  3.36026000E+01  4.91901000E+00
  5.54441000E+01  1.26323000E+01  3.71756000E+00  1.16545000E+00  3.21892000E-01
  1.07600000E-01  3.50000000E+00  8.75000000E-01  3.38650000E+01  5.09479000E+00
  1.15879000E+00  3.25840000E-01  1.02741000E-01  7.50000000E-01
Contraction coefficients                   R   N=          34
  1.89515008E-03  1.43859006E-02  7.07320031E-02  2.40001011E-01  5.94797026E-01
  2.80802012E-01  1.13889012E-01  9.20811101E-01 -3.27447036E-03  1.00000000E+00
  1.00000000E+00  1.00000000E+00  1.00000000E+00  1.00000000E+00  1.80093016E-03
  1.37419012E-02  6.81334059E-02  2.33325020E-01  5.89086051E-01  2.99505026E-01
  1.14536016E-01  9.20512125E-01 -3.37804046E-03  1.00000000E+00  1.00000000E+00
  1.00000000E+00  1.00000000E+00  1.00000000E+00  2.54938145E-02  1.90373109E-01
  8.52161486E-01  1.00000000E+00  1.00000000E+00  1.00000000E+00
P(S=P) Contraction coefficients            R   N=          34
  0.00000000E+00  0.00000000E+00  0.00000000E+00  0.00000000E+00  0.00000000E+00
  0.00000000E+00  3.65113974E-02  2.37152983E-01  8.19701941E-01  1.00000000E+00
  1.00000000E+00  1.00000000E+00  0.00000000E+00  0.00000000E+00  0.00000000E+00
  0.00000000E+00  0.00000000E+00  0.00000000E+00  0.00000000E+00  0.00000000E+00
  3.54608874E-02  2.37450915E-01  8.20457708E-01  1.00000000E+00  1.00000000E+00
  1.00000000E+00  0.00000000E+00  0.00000000E+00  0.00000000E+00  0.00000000E+00
  0.00000000E+00  0.00000000E+00  0.00000000E+00  0.00000000E+00
Coordinates of each shell                  R   N=          54
  9.50213801E-02  1.30811042E+00 -1.61237057E-32  9.50213801E-02  1.30811042E+00
 -1.61237057E-32  9.50213801E-02  1.30811042E+00 -1.61237057E-32  9.50213801E-02
  1.30811042E+00 -1.61237057E-32  9.50213801E-02  1.30811042E+00 -1.61237057E-32
  9.50213801E-02  1.30811042E+00 -1.61237057E-32  9.50213801E-02  1.30811042E+00
 -1.61237057E-32  9.50213801E-02 -1.37530068E+00  1.69518897E-32  9.50213801E-02
 -1.37530068E+00  1.69518897E-32  9.50213801E-02 -1.37530068E+00  1.69518897E-32
  9.50213801E-02 -1.37530068E+00  1.69518897E-32  9.50213801E-02 -1.37530068E+00
  1.69518897E-32  9.50213801E-02 -1.37530068E+00  1.69518897E-32  9.50213801E-02
 -1.37530068E+00  1.69518897E-32 -1.61536346E+00  1.91282278E+00 -2.35773611E-32
 -1.61536346E+00  1.91282278E+00 -2.35773611E-32 -1.61536346E+00  1.91282278E+00
 -2.35773611E-32 -1.61536346E+00  1.91282278E+00 -2.35773611E-32
Num ILSW                                   I              100
ILSW                                       I   N=         100
           0           0           0           0           2           0
           0           0           0           0        3731          -1
           5           0           0           0           0           0
           0           0           0           0           0           0
           1           0           0           0           0           0
           0           0      100000           0          -1           0
           0           0           0           0           0           0
           0           0           0           1           0           0
           0 -2000000000           1           0           0           0
           0           0         211          52           0           0
           0           0          44           0           0           0
           0           0           0           3           0           1
           0           0           0           0           0           0
           0           0           0           0           0           0
           0           0           0           0           0           0
           0           0           0           0           0           0
           0           0           0           0
Num RLSW                                   I               52
RLSW                                       R   N=          52
  1.00000000E+00  1.00000000E+00  1.00000000E+00  1.00000000E+00  2.29450000E-01
  0.00000000E+00  0.00000000E+00  1.00000000E+00  0.00000000E+00  0.00000000E+00
  0.00000000E+00  0.00000000E+00  1.00000000E+00  0.00000000E+00  0.00000000E+00
  0.00000000E+00  0.00000000E+00  1.00000000E+00  0.00000000E+00  0.00000000E+00
  0.00000000E+00  0.00000000E+00  1.00000000E+00  0.00000000E+00  0.00000000E+00
  0.00000000E+00  0.00000000E+00  1.00000000E+00  0.00000000E+00  0.00000000E+00
  0.00000000E+00  0.00000000E+00  1.00000000E+00  0.00000000E+00  0.00000000E+00
  0.00000000E+00  0.00000000E+00  0.00000000E+00  1.00000000E+00  1.00000000E+00
  0.00000000E+00  1.00000000E+00  0.00000000E+00  0.00000000E+00  0.00000000E+00
  0.00000000E+00  0.00000000E+00  0.00000000E+00  0.00000000E+00  0.00000000E+00
  0.00000000E+00  0.00000000E+00
MxBond                                     I                2
NBond                                      I   N=           3
           2           1           1
IBond                                      I   N=           6
           2           3           1           0           1           0
RBond                                      R   N=           6
  1.00000000E+00  1.00000000E+00  1.00000000E+00  0.00000000E+00  1.00000000E+00
  0.00000000E+00
Virial Ratio                               R      2.002512534176115E+00
SCF Energy                                 R     -1.754626954507162E+02
Total Energy                               R     -1.754626954507162E+02
RMS Density                                R      4.488893701372455E-09
Job Status                                 I                1
Nuclear derivative order                   I                0
External E-field                           R   N=          35
  0.00000000E+00  0.00000000E+00  0.00000000E+00  0.00000000E+00  0.00000000E+00
  0.00000000E+00  0.00000000E+00  0.00000000E+00  0.00000000E+00  0.00000000E+00
  0.00000000E+00  0.00000000E+00  0.00000000E+00  0.00000000E+00  0.00000000E+00
  0.00000000E+00  0.00000000E+00  0.00000000E+00  0.00000000E+00  0.00000000E+00
  0.00000000E+00  0.00000000E+00  0.00000000E+00  0.00000000E+00  0.00000000E+00
  0.00000000E+00  0.00000000E+00  0.00000000E+00  0.00000000E+00  0.00000000E+00
  0.00000000E+00  0.00000000E+00  0.00000000E+00  0.00000000E+00  0.00000000E+00
IOpCl                                      I                0
IROHF                                      I                0
Alpha Orbital Energies                     R   N=          60
 -2.47825247E+01 -1.92801781E+01 -1.28195154E+00 -1.00757835E+00 -6.04560094E-01
 -5.12982655E-01 -4.94596384E-01 -4.01954556E-01 -3.38230039E-01 -6.58462909E-02
  4.07532035E-02  1.39155686E-01  1.55117986E-01  1.60149436E-01  2.05024127E-01
  2.46056007E-01  2.69798844E-01  2.75685603E-01  4.34434634E-01  4.63470905E-01
  9.29907334E-01  9.57102470E-01  9.76415895E-01  1.14903972E+00  1.17020112E+00
  1.25751233E+00  1.27171430E+00  1.33085595E+00  1.35781975E+00  1.43155639E+00
  1.64048158E+00  1.77499818E+00  1.88891855E+00  1.89118130E+00  1.94124827E+00
  2.00276879E+00  2.11613032E+00  2.39300985E+00  2.43050550E+00  2.61793604E+00
  2.86301553E+00  2.97816502E+00  4.88767380E+00  5.10627675E+00  5.54646244E+00
  6.27544226E+00  6.27881599E+00  6.42218447E+00  6.71755388E+00  6.76899153E+00
  6.81635021E+00  6.90109776E+00  7.24649832E+00  9.02982340E+00  9.03495751E+00
  9.16099297E+00  9.20885688E+00  9.59815697E+00  4.98240319E+01  6.68532287E+01
Alpha MO coefficients                      R   N=        3600
  7.04073669E-07 -4.92616307E-07  2.07806755E-05  8.64419501E-05  0.00000000E+00
 -3.75517181E-04 -9.99575007E-05 -3.63516943E-04  0.00000000E+00  2.43894709E-03
 -4.77092936E-04 -1.40722936E-03  0.00000000E+00 -6.50159110E-03  5.98856667E-04
  2.61179608E-03  0.00000000E+00  2.82432268E-05  0.00000000E+00  0.00000000E+00
  6.81317360E-06 -1.13840320E-05 -4.24614472E-04  0.00000000E+00  0.00000000E+00
 -3.84770299E-04 -1.77613611E-07  5.47905673E-01  4.71853600E-01 -8.23472073E-05
  8.68977079E-04  0.00000000E+00  1.18464427E-02  1.19179384E-05 -5.88059875E-05
  0.00000000E+00 -8.21006488E-03  9.43336019E-05 -1.85209415E-03  0.00000000E+00
  8.28549614E-03 -1.34745907E-04  2.59614980E-03  0.00000000E+00 -1.18005370E-04
  0.00000000E+00  0.00000000E+00 -1.93993490E-04 -1.77731633E-05  3.02226140E-04
  0.00000000E+00  0.00000000E+00  5.05298915E-04  4.66757354E-05 -1.32368058E-06
 -8.32649802E-04  1.20728425E-03 -1.67136058E-04  2.53451457E-04  0.00000000E+00
  5.51575846E-01  4.69825106E-01 -1.23655916E-03 -1.05168828E-03  0.00000000E+00
  1.20447834E-02 -1.75057406E-04  4.55116980E-04  0.00000000E+00 -5.88595955E-03
 -3.72808113E-04  1.36625846E-03  0.00000000E+00  2.70203367E-03 -4.31321987E-04
 -1.45154889E-04  0.00000000E+00 -1.93659934E-04  0.00000000E+00  0.00000000E+00
 -1.04966900E-04 -4.52346153E-05  1.53742651E-04  0.00000000E+00  0.00000000E+00
  7.12178718E-04 -2.51553591E-04 -5.98766109E-06 -5.01121183E-06 -5.51174103E-06
 -2.68518873E-05  0.00000000E+00 -1.61104531E-04  2.50929158E-05  2.30878781E-04
  0.00000000E+00  1.38940517E-03 -6.09926082E-05  9.30854832E-04  0.00000000E+00
 -5.51708222E-05  8.61204851E-05  3.90768524E-04  0.00000000E+00 -1.27444434E-05
  0.00000000E+00  0.00000000E+00 -2.35124001E-05  1.08238777E-05 -7.21944869E-05
  0.00000000E+00  0.00000000E+00 -1.19146590E-04 -4.05788795E-05 -2.41597612E-04
 -3.57105763E-04 -1.29781885E-03 -1.01947921E-03  2.30699818E-04  0.00000000E+00
 -5.65136145E-02 -9.07632707E-02 -1.41304172E-02 -3.83255059E-02  0.00000000E+00
  2.62165232E-01 -2.07585672E-02 -6.58254845E-02  0.00000000E+00  1.50548698E-01
 -2.12443233E-03 -2.40360356E-02  0.00000000E+00  8.19958458E-02 -6.22215480E-03
 -3.24096882E-02  0.00000000E+00 -3.61601144E-03  0.00000000E+00  0.00000000E+00
 -3.13027097E-03 -2.32262902E-04 -7.93542730E-03  0.00000000E+00  0.00000000E+00
 -1.35607643E-02  3.65623576E-03 -1.08753713E-01 -1.76585582E-01 -2.44417163E-03
  3.81133534E-02  0.00000000E+00  5.23958957E-01 -3.79863484E-03  6.31087205E-02
  0.00000000E+00  4.13895266E-01 -5.26002703E-03  4.65348814E-02  0.00000000E+00
 -1.06837151E-01  1.53648192E-03 -4.61845381E-02  0.00000000E+00 -1.32167278E-03
  0.00000000E+00  0.00000000E+00 -2.29886519E-03 -1.21197993E-04 -9.44396867E-03
  0.00000000E+00  0.00000000E+00 -1.49378424E-02 -1.97370137E-03  3.61532905E-02
  3.39855117E-02 -1.26959135E-02  1.28284405E-02 -7.37744371E-03  0.00000000E+00
 -1.04210734E-01 -1.68441606E-01 -5.21434573E-02  2.52380633E-02  0.00000000E+00
  5.00043171E-01 -7.99071144E-02  3.24209935E-02  0.00000000E+00  3.72229392E-01
 -3.43921899E-02  5.88304234E-03  0.00000000E+00 -3.41391173E-02  6.02772009E-03
  1.25695909E-02  0.00000000E+00 -2.67683643E-03  0.00000000E+00  0.00000000E+00
  3.41783789E-03 -2.07351857E-03 -6.65673545E-03  0.00000000E+00  0.00000000E+00
  3.12281010E-03 -2.47077090E-03  6.62813466E-02  1.08339528E-01 -3.53137250E-03
  4.05923435E-02  0.00000000E+00 -3.32716742E-01 -5.43754245E-03  6.05493589E-02
  0.00000000E+00 -2.87870749E-01 -2.15845298E-03  2.63320864E-02  0.00000000E+00
  1.80032597E-02 -5.18182136E-04  4.16365227E-03  0.00000000E+00 -6.37869310E-04
  0.00000000E+00  0.00000000E+00 -1.05840469E-03 -1.97115221E-04 -2.47995320E-03
  0.00000000E+00  0.00000000E+00 -4.67543116E-03 -1.50882270E-03  1.09149992E-01
  8.84097127E-02  1.37246915E-02  2.66827445E-02 -7.62904254E-03  0.00000000E+00
 -1.07755503E-02 -1.79558046E-02  1.38389350E-01 -1.45404053E-01  0.00000000E+00
  5.46768182E-02  2.01630936E-01 -2.25813805E-01  0.00000000E+00  8.73678132E-02
  1.25234160E-01 -1.44538525E-01  0.00000000E+00  3.31409884E-02  5.38104399E-03
 -1.14934915E-02  0.00000000E+00  3.94106972E-04  0.00000000E+00  0.00000000E+00
 -8.66991374E-03  2.50584022E-03 -3.67209035E-03  0.00000000E+00  0.00000000E+00
 -2.66797734E-02  3.13584010E-03  2.42346024E-02  3.99762751E-02  5.93090819E-02
  1.84799026E-01  0.00000000E+00 -1.28303135E-01  8.65327076E-02  2.76405354E-01
  0.00000000E+00 -1.25665457E-01  6.93035442E-02  2.01931257E-01  0.00000000E+00
 -6.71246581E-02  2.91472734E-03 -1.08720672E-02  0.00000000E+00 -1.66191627E-03
  0.00000000E+00  0.00000000E+00 -3.02098850E-03  9.08534223E-04 -8.66267699E-03
  0.00000000E+00  0.00000000E+00 -1.62007045E-02  7.41912554E-03 -1.25558117E-01
 -1.60480596E-01 -3.60099557E-02 -2.23987344E-02  3.16118507E-04  0.00000000E+00
 -3.19504269E-02 -5.23709549E-02  1.45459921E-01  1.08818976E-01  0.00000000E+00
  1.63555564E-01  2.11873303E-01  1.67517355E-01  0.00000000E+00  1.95607739E-01
  1.55970002E-01  1.33698186E-01  0.00000000E+00  5.80210089E-03  1.44583519E-02
  2.13284638E-02  0.00000000E+00  3.08633754E-03  0.00000000E+00  0.00000000E+00
 -1.50998635E-05 -3.34416069E-03  9.10390248E-03  0.00000000E+00  0.00000000E+00
  2.18105934E-03 -2.71887669E-02 -7.74089703E-03 -1.28147947E-02  1.92847789E-01
 -1.22448840E-01  0.00000000E+00  4.21292443E-02  2.80110443E-01 -1.82680325E-01
  0.00000000E+00  3.86200538E-02  2.34404429E-01 -1.45379541E-01  0.00000000E+00
  4.08122303E-02  2.77796758E-02 -1.56854700E-03  0.00000000E+00  7.59270879E-04
  0.00000000E+00  0.00000000E+00  1.26652179E-03  2.10961722E-03  6.22560632E-03
  0.00000000E+00  0.00000000E+00  7.00432766E-03  1.61009710E-02 -4.51177649E-02
 -7.44305743E-02 -1.53405622E-02 -5.74939758E-03  1.46005363E-02  0.00000000E+00
  0.00000000E+00  0.00000000E+00  0.00000000E+00  0.00000000E+00  1.53320574E-01
  0.00000000E+00  0.00000000E+00  0.00000000E+00  2.28505521E-01  0.00000000E+00
  0.00000000E+00  0.00000000E+00  1.87015315E-01  0.00000000E+00  0.00000000E+00
  0.00000000E+00  2.41482229E-02  0.00000000E+00 -2.01367435E-03 -3.40085250E-03
  0.00000000E+00  0.00000000E+00  0.00000000E+00 -1.11455943E-02 -1.92987021E-02
  0.00000000E+00  0.00000000E+00  0.00000000E+00  0.00000000E+00  0.00000000E+00
  0.00000000E+00  2.64756217E-01  0.00000000E+00  0.00000000E+00  0.00000000E+00
  3.84385082E-01  0.00000000E+00  0.00000000E+00  0.00000000E+00  3.20775829E-01
  0.00000000E+00  0.00000000E+00  0.00000000E+00  3.39603562E-02  0.00000000E+00
 -7.31280399E-05  2.53856320E-03  0.00000000E+00  0.00000000E+00  0.00000000E+00
 -1.98836331E-03  1.80698601E-02  0.00000000E+00  0.00000000E+00  0.00000000E+00
  0.00000000E+00  0.00000000E+00  0.00000000E+00  0.00000000E+00  1.43421889E-02
  2.92898444E-02  4.81752955E-02 -1.70300451E-01 -4.96721124E-02  0.00000000E+00
 -1.50008426E-01 -2.45487416E-01 -7.71258289E-02  0.00000000E+00 -2.17165703E-01
 -1.80167273E-01 -6.89256377E-02  0.00000000E+00 -5.57266126E-02 -1.13003913E-02
 -2.21520793E-02  0.00000000E+00 -3.69018301E-03  0.00000000E+00  0.00000000E+00
  3.11397330E-03 -2.10130090E-03 -6.73115240E-03  0.00000000E+00  0.00000000E+00
  5.56852354E-03 -6.19909742E-03 -1.49182095E-03 -2.49940651E-03  2.53726360E-01
  6.07333606E-02  0.00000000E+00  8.27581094E-03  3.67119796E-01  9.06813729E-02
  0.00000000E+00  1.52676192E-02  3.19798149E-01  7.76879578E-02  0.00000000E+00
 -3.09193662E-02  5.55844153E-02  6.43393460E-04  0.00000000E+00 -1.63526166E-04
  0.00000000E+00  0.00000000E+00 -4.30777460E-04  6.72364365E-04 -1.20024488E-03
  0.00000000E+00  0.00000000E+00 -3.86357905E-03  1.75175787E-03  9.87555730E-02
  1.62465694E-01  8.13059100E-02  1.22630845E-02 -1.22445884E-02  0.00000000E+00
  0.00000000E+00  0.00000000E+00  0.00000000E+00  0.00000000E+00  2.72247357E-01
  0.00000000E+00  0.00000000E+00  0.00000000E+00  4.00737934E-01  0.00000000E+00
  0.00000000E+00  0.00000000E+00  3.67357873E-01  0.00000000E+00  0.00000000E+00
  0.00000000E+00  7.82234452E-02  0.00000000E+00 -3.81297499E-03 -2.09437691E-04
  0.00000000E+00  0.00000000E+00  0.00000000E+00 -1.88849306E-02  3.74471567E-03
  0.00000000E+00  0.00000000E+00  0.00000000E+00  0.00000000E+00  0.00000000E+00
  0.00000000E+00 -1.90940051E-01  0.00000000E+00  0.00000000E+00  0.00000000E+00
 -2.75830471E-01  0.00000000E+00  0.00000000E+00  0.00000000E+00 -2.47273796E-01
  0.00000000E+00  0.00000000E+00  0.00000000E+00 -6.53423202E-02  0.00000000E+00
  8.09116635E-05  3.80299865E-04  0.00000000E+00  0.00000000E+00  0.00000000E+00
  6.32364074E-04  6.36477212E-03  0.00000000E+00  0.00000000E+00  0.00000000E+00
  0.00000000E+00  0.00000000E+00  0.00000000E+00  0.00000000E+00  2.82542931E-02
 -4.02144413E-02 -6.65772664E-02 -3.81403137E-02 -2.28630656E-01  0.00000000E+00
  2.21328201E-01 -6.24366195E-02 -3.41323171E-01  0.00000000E+00  4.26726025E-01
 -8.47042021E-02 -3.89221043E-01  0.00000000E+00  5.04572094E-01 -4.73670571E-02
 -3.97404296E-01  0.00000000E+00  2.53744818E-03  0.00000000E+00  0.00000000E+00
  4.28673497E-03  4.03843285E-03  1.15962848E-02  0.00000000E+00  0.00000000E+00
  2.96782476E-02  1.56995874E-02  3.06601683E-02  5.13715629E-02  1.21256056E-02
 -2.25861585E-01  0.00000000E+00 -1.80787369E-01  1.75076354E-02 -3.28870666E-01
  0.00000000E+00 -2.44541213E-01  2.20628390E-02 -3.51464684E-01  0.00000000E+00
 -4.88088176E-01 -1.50483111E-02 -3.03072313E-01  0.00000000E+00 -1.16362101E-03
  0.00000000E+00  0.00000000E+00 -2.20412577E-03 -1.48618845E-04 -8.92805029E-03
  0.00000000E+00  0.00000000E+00 -1.58546022E-02 -4.85703058E-04 -3.72190411E-02
 -8.39798343E-02 -2.62362970E-01 -8.64415344E-03 -2.99010321E-02  0.00000000E+00
  2.57389739E-02  4.18263175E-02  1.12141572E-01 -9.26347578E-02  0.00000000E+00
 -1.15596988E-01  1.59497659E-01 -1.18582542E-01  0.00000000E+00 -5.17015133E-01
  2.52541137E-01 -2.38448182E-01  0.00000000E+00  3.56663032E-01  2.11088942E-01
 -4.06379564E-01  0.00000000E+00  1.18468764E-03  0.00000000E+00  0.00000000E+00
  1.91815623E-03 -9.21593076E-04  1.65967962E-03  0.00000000E+00  0.00000000E+00
  1.45304265E-02 -4.42411727E-03  1.67686489E-02  2.82328904E-02  1.04920856E-03
 -2.60806733E-02  0.00000000E+00 -1.00298913E-01 -1.74121748E-03 -4.63376731E-02
  0.00000000E+00 -1.52967736E-01  1.82976730E-02 -2.17730753E-02  0.00000000E+00
 -5.84761677E-01 -4.88471736E-02 -4.19916530E-01  0.00000000E+00 -1.38659565E-04
  0.00000000E+00  0.00000000E+00  1.74574672E-04  4.41680234E-04 -1.15619175E-03
  0.00000000E+00  0.00000000E+00  1.24674096E-03  6.14196241E-03  6.91010707E-02
  6.74481502E-02  1.55885427E+00 -3.71274180E-02  5.30382367E-03  0.00000000E+00
  1.39445369E-02  2.24398928E-02 -6.15117904E-02  9.18715962E-02  0.00000000E+00
 -5.51147189E-02 -6.59080534E-02  1.38852612E-01  0.00000000E+00 -3.29981874E-01
 -2.37858136E-01  2.81844797E-01  0.00000000E+00  3.96186114E+00 -1.82343566E-01
 -1.58181638E+00  0.00000000E+00  5.67805382E-04  0.00000000E+00  0.00000000E+00
 -2.07434876E-03  8.22642232E-04  1.29875470E-02  0.00000000E+00  0.00000000E+00
  2.41612405E-02 -5.63684771E-04  1.41569242E-02  2.47062341E-02 -5.41422824E-04
  9.80045991E-02  0.00000000E+00 -1.07166233E-01 -1.91644158E-03  1.11848700E-01
  0.00000000E+00  2.04200870E-02  7.16458955E-03  3.52140226E-01  0.00000000E+00
 -2.22974380E+00 -1.99246396E-02 -1.28265473E+00  0.00000000E+00  1.77166468E-03
  0.00000000E+00  0.00000000E+00  2.64640464E-03 -4.85319949E-04  2.43447592E-03
  0.00000000E+00  0.00000000E+00  1.07042875E-03 -1.64376337E-03 -2.42398073E-02
 -6.49849715E-02 -1.43465045E+00  1.11637614E-02 -1.11378872E-02  0.00000000E+00
  1.01644753E-02  1.64328004E-02 -8.85847042E-02 -9.71878084E-02  0.00000000E+00
 -4.47444595E-02 -9.33676881E-02 -1.15746579E-01  0.00000000E+00 -2.35111937E-01
 -3.51284196E-01 -3.54068449E-01  0.00000000E+00  2.76367950E-01  4.64947098E-01
  1.36860808E+00  0.00000000E+00  1.22753003E-03  0.00000000E+00  0.00000000E+00
  9.89987582E-04  2.95719337E-03 -6.99056724E-03  0.00000000E+00  0.00000000E+00
 -5.24038663E-03  1.52126326E-02  4.31880888E-03  6.54973471E-03 -2.79482451E-02
 -3.95752128E-02  0.00000000E+00 -5.79281064E-03 -3.26205852E-02 -5.48016437E-02
  0.00000000E+00 -2.06471193E-01 -7.77159032E-02 -1.32457214E-01  0.00000000E+00
  1.10332887E+00  1.08773173E-01  2.48560723E-01  0.00000000E+00 -8.37410087E-04
  0.00000000E+00  0.00000000E+00 -1.48799670E-03 -1.12919096E-03  9.13790802E-04
  0.00000000E+00  0.00000000E+00 -9.26951832E-04 -1.32602066E-03 -1.97858562E-02
 -8.27209458E-02 -5.83164006E-01  1.17189007E-02  1.07173618E-02  0.00000000E+00
  0.00000000E+00  0.00000000E+00  0.00000000E+00  0.00000000E+00 -1.19067558E-01
  0.00000000E+00  0.00000000E+00  0.00000000E+00 -1.22871489E-01  0.00000000E+00
  0.00000000E+00  0.00000000E+00 -4.65256864E-01  0.00000000E+00  0.00000000E+00
  0.00000000E+00  1.27966316E+00  0.00000000E+00  1.25894070E-03  1.75928240E-03
  0.00000000E+00  0.00000000E+00  0.00000000E+00  7.24948322E-03  1.05583966E-02
  0.00000000E+00  0.00000000E+00  0.00000000E+00  0.00000000E+00  0.00000000E+00
  0.00000000E+00 -4.18635605E-02  0.00000000E+00  0.00000000E+00  0.00000000E+00
 -5.35302650E-02  0.00000000E+00  0.00000000E+00  0.00000000E+00 -9.47551980E-02
  0.00000000E+00  0.00000000E+00  0.00000000E+00 -3.76950864E-02  0.00000000E+00
  7.09935856E-05 -1.02722050E-03  0.00000000E+00  0.00000000E+00  0.00000000E+00
 -1.13286350E-04 -2.24736121E-03  0.00000000E+00  0.00000000E+00  0.00000000E+00
  0.00000000E+00  0.00000000E+00  0.00000000E+00  0.00000000E+00  2.17890928E-02
  6.20780652E-03  1.08917532E-02  1.52697973E-02  1.18156042E-02  0.00000000E+00
 -6.24329471E-02  2.23379165E-02  6.68420203E-03  0.00000000E+00  2.01892990E-01
 -1.98832550E-01  1.68908144E-01  0.00000000E+00 -4.88282550E+00  2.99723504E+00
 -9.81818883E-01  0.00000000E+00 -2.14748022E-03  0.00000000E+00  0.00000000E+00
  2.51922146E-03 -1.33645711E-03 -3.64999753E-02  0.00000000E+00  0.00000000E+00
  5.70327172E-02 -3.24867228E-02 -4.84446634E-03 -7.92343501E-03 -5.81817083E-02
 -1.59379961E-02  0.00000000E+00  2.12910418E-02 -7.69341566E-02 -1.16768872E-02
  0.00000000E+00  1.06057599E-01 -1.20387282E-01 -5.05080292E-02  0.00000000E+00
  2.47632438E-01 -1.50280420E-01  4.65934105E-01  0.00000000E+00  4.10015773E-05
  0.00000000E+00  0.00000000E+00  1.42316369E-03 -2.70456939E-04 -6.06957568E-03
  0.00000000E+00  0.00000000E+00  4.76097772E-03  4.55302267E-03  7.67733264E-02
 -1.38131038E-01  5.05301750E+00 -7.20719885E-02  1.48532316E-02  0.00000000E+00
  1.09972847E-02  1.70416440E-02 -1.64959055E-02  5.54679246E-03  0.00000000E+00
 -2.56807365E-02 -2.83057557E-03 -4.62909266E-03  0.00000000E+00 -5.94214378E-01
 -6.95887756E-02  4.96966190E-03  0.00000000E+00  2.88116639E+00 -5.14497592E-01
 -7.41762798E-01  0.00000000E+00  4.50164873E-03  0.00000000E+00  0.00000000E+00
  4.95332688E-03  1.08060389E-03  1.20986732E-02  0.00000000E+00  0.00000000E+00
 -1.97873696E-03  1.55934509E-02 -8.03798989E-03 -1.29225138E-02  4.55377266E-02
 -7.97951734E-02  0.00000000E+00  3.10183697E-02  4.62361280E-02 -7.67761113E-02
  0.00000000E+00  2.08199452E-01  1.75069880E-01 -3.49056702E-01  0.00000000E+00
 -1.56293808E+00 -4.61511738E-01  8.08765356E-01  0.00000000E+00  1.19883859E-03
  0.00000000E+00  0.00000000E+00  1.55208052E-03  2.04768042E-04  1.10255524E-02
  0.00000000E+00  0.00000000E+00  1.38093586E-02  3.56134201E-03 -9.46128827E-03
  3.50477094E-02 -1.84058963E+00  1.01878543E-02 -2.24062577E-02  0.00000000E+00
  0.00000000E+00  0.00000000E+00  0.00000000E+00  0.00000000E+00  2.55166521E-02
  0.00000000E+00  0.00000000E+00  0.00000000E+00  3.29199390E-02  0.00000000E+00
  0.00000000E+00  0.00000000E+00  7.44796670E-02  0.00000000E+00  0.00000000E+00
  0.00000000E+00 -1.02728261E+00  0.00000000E+00 -2.67214523E-04 -1.41095056E-03
  0.00000000E+00  0.00000000E+00  0.00000000E+00 -1.00631093E-03 -1.30268815E-02
  0.00000000E+00  0.00000000E+00  0.00000000E+00  0.00000000E+00  0.00000000E+00
  0.00000000E+00 -1.16226902E-01  0.00000000E+00  0.00000000E+00  0.00000000E+00
 -1.10940952E-01  0.00000000E+00  0.00000000E+00  0.00000000E+00 -4.84967798E-01
  0.00000000E+00  0.00000000E+00  0.00000000E+00  1.70198687E+00  0.00000000E+00
  1.08376052E-04 -1.42864572E-03  0.00000000E+00  0.00000000E+00  0.00000000E+00
 -4.35633217E-05 -1.14025798E-02  0.00000000E+00  0.00000000E+00  0.00000000E+00
  0.00000000E+00  0.00000000E+00  0.00000000E+00  0.00000000E+00 -7.79249879E-03
  9.59175285E-04  9.19653083E-04  8.27100124E-03  4.12301850E-03  0.00000000E+00
  1.45646960E-02  1.56012050E-02 -9.21422511E-05  0.00000000E+00 -2.34422441E-01
  3.26736793E-02 -5.54834012E-03  0.00000000E+00  4.15545551E+00 -2.62718263E+00
 -4.38633638E-01  0.00000000E+00  3.27173058E-03  0.00000000E+00  0.00000000E+00
 -3.31681919E-04 -1.56965580E-04  1.92144086E-02  0.00000000E+00  0.00000000E+00
 -1.04328513E-02 -3.78338806E-03 -2.20861330E-03 -3.03877399E-03 -9.69286553E-02
 -2.46979493E-02  0.00000000E+00 -5.71601440E-03 -8.73261224E-02 -2.24854263E-02
  0.00000000E+00  1.86895242E-01 -4.37684010E-01 -1.06844137E-01  0.00000000E+00